LAMMPS data file by lmp_data

2099 atoms
2 atom types


0 21 xlo xhi
0 105 ylo yhi
-1 1  zlo zhi

Masses

1 1
2 1

Atoms

1 2 1.0  1.0  0.0  0  0  0
2 2 1.0  2.0  0.0  0  0  0
3 2 1.0  3.0  0.0  0  0  0
4 2 1.0  4.0  0.0  0  0  0
5 2 1.0  5.0  0.0  0  0  0
6 2 1.0  6.0  0.0  0  0  0
7 2 1.0  7.0  0.0  0  0  0
8 2 1.0  8.0  0.0  0  0  0
9 2 1.0  9.0  0.0  0  0  0
10 2 1.0  10.0  0.0  0  0  0
11 2 1.0  11.0  0.0  0  0  0
12 2 1.0  12.0  0.0  0  0  0
13 2 1.0  13.0  0.0  0  0  0
14 2 1.0  14.0  0.0  0  0  0
15 2 1.0  15.0  0.0  0  0  0
16 2 1.0  16.0  0.0  0  0  0
17 2 1.0  17.0  0.0  0  0  0
18 2 1.0  18.0  0.0  0  0  0
19 2 1.0  19.0  0.0  0  0  0
20 2 1.0  20.0  0.0  0  0  0
21 2 1.0  21.0  0.0  0  0  0
22 2 1.0  22.0  0.0  0  0  0
23 2 1.0  23.0  0.0  0  0  0
24 2 1.0  24.0  0.0  0  0  0
25 2 1.0  25.0  0.0  0  0  0
26 2 1.0  26.0  0.0  0  0  0
27 2 1.0  27.0  0.0  0  0  0
28 2 1.0  28.0  0.0  0  0  0
29 2 1.0  29.0  0.0  0  0  0
30 2 1.0  30.0  0.0  0  0  0
31 2 1.0  31.0  0.0  0  0  0
32 2 1.0  32.0  0.0  0  0  0
33 2 1.0  33.0  0.0  0  0  0
34 2 1.0  34.0  0.0  0  0  0
35 2 1.0  35.0  0.0  0  0  0
36 2 1.0  36.0  0.0  0  0  0
37 2 1.0  37.0  0.0  0  0  0
38 2 1.0  38.0  0.0  0  0  0
39 2 1.0  39.0  0.0  0  0  0
40 2 1.0  40.0  0.0  0  0  0
41 2 1.0  41.0  0.0  0  0  0
42 2 1.0  42.0  0.0  0  0  0
43 2 1.0  43.0  0.0  0  0  0
44 2 1.0  44.0  0.0  0  0  0
45 2 1.0  45.0  0.0  0  0  0
46 2 1.0  46.0  0.0  0  0  0
47 2 1.0  47.0  0.0  0  0  0
48 2 1.0  48.0  0.0  0  0  0
49 2 1.0  49.0  0.0  0  0  0
50 2 1.0  50.0  0.0  0  0  0
51 2 1.0  51.0  0.0  0  0  0
52 2 1.0  52.0  0.0  0  0  0
53 2 1.0  53.0  0.0  0  0  0
54 2 1.0  54.0  0.0  0  0  0
55 2 1.0  55.0  0.0  0  0  0
56 2 1.0  56.0  0.0  0  0  0
57 2 1.0  57.0  0.0  0  0  0
58 2 1.0  58.0  0.0  0  0  0
59 2 1.0  59.0  0.0  0  0  0
60 2 1.0  60.0  0.0  0  0  0
61 2 1.0  61.0  0.0  0  0  0
62 2 1.0  62.0  0.0  0  0  0
63 2 1.0  63.0  0.0  0  0  0
64 2 1.0  64.0  0.0  0  0  0
65 2 1.0  65.0  0.0  0  0  0
66 2 1.0  66.0  0.0  0  0  0
67 2 1.0  67.0  0.0  0  0  0
68 2 1.0  68.0  0.0  0  0  0
69 2 1.0  69.0  0.0  0  0  0
70 2 1.0  70.0  0.0  0  0  0
71 2 1.0  71.0  0.0  0  0  0
72 2 1.0  72.0  0.0  0  0  0
73 2 1.0  73.0  0.0  0  0  0
74 2 1.0  74.0  0.0  0  0  0
75 2 1.0  75.0  0.0  0  0  0
76 2 1.0  76.0  0.0  0  0  0
77 2 1.0  77.0  0.0  0  0  0
78 2 1.0  78.0  0.0  0  0  0
79 2 1.0  79.0  0.0  0  0  0
80 2 1.0  80.0  0.0  0  0  0
81 2 1.0  81.0  0.0  0  0  0
82 2 1.0  82.0  0.0  0  0  0
83 2 1.0  83.0  0.0  0  0  0
84 2 1.0  84.0  0.0  0  0  0
85 2 1.0  85.0  0.0  0  0  0
86 2 1.0  86.0  0.0  0  0  0
87 2 1.0  87.0  0.0  0  0  0
88 2 1.0  88.0  0.0  0  0  0
89 2 1.0  89.0  0.0  0  0  0
90 2 1.0  90.0  0.0  0  0  0
91 2 1.0  91.0  0.0  0  0  0
92 2 1.0  92.0  0.0  0  0  0
93 2 1.0  93.0  0.0  0  0  0
94 2 1.0  94.0  0.0  0  0  0
95 2 1.0  95.0  0.0  0  0  0
96 2 1.0  96.0  0.0  0  0  0
97 2 1.0  97.0  0.0  0  0  0
98 2 1.0  98.0  0.0  0  0  0
99 2 1.0  99.0  0.0  0  0  0
100 2 1.0  100.0  0.0  0  0  0
101 2 1.0  101.0  0.0  0  0  0
102 2 1.0  102.0  0.0  0  0  0
103 2 1.0  103.0  0.0  0  0  0
104 2 1.0  104.0  0.0  0  0  0
105 1 1.0  105.0  0.0   0  0  0  
106 2 2.0  1.0  0.0  0  0  0
107 2 2.0  2.0  0.0  0  0  0
108 2 2.0  3.0  0.0  0  0  0
109 2 2.0  4.0  0.0  0  0  0
110 1 2.0  5.0  0.0   0  0  0  
111 1 2.0  6.0  0.0   0  0  0  
112 1 2.0  7.0  0.0   0  0  0  
113 2 2.0  8.0  0.0  0  0  0
114 2 2.0  9.0  0.0  0  0  0
115 2 2.0  10.0  0.0  0  0  0
116 2 2.0  11.0  0.0  0  0  0
117 2 2.0  12.0  0.0  0  0  0
118 2 2.0  13.0  0.0  0  0  0
119 1 2.0  14.0  0.0   0  0  0  
120 1 2.0  15.0  0.0   0  0  0  
121 1 2.0  16.0  0.0   0  0  0  
122 2 2.0  17.0  0.0  0  0  0
123 2 2.0  18.0  0.0  0  0  0
124 2 2.0  19.0  0.0  0  0  0
125 2 2.0  20.0  0.0  0  0  0
126 2 2.0  21.0  0.0  0  0  0
127 2 2.0  22.0  0.0  0  0  0
128 2 2.0  23.0  0.0  0  0  0
129 2 2.0  24.0  0.0  0  0  0
130 2 2.0  25.0  0.0  0  0  0
131 2 2.0  26.0  0.0  0  0  0
132 2 2.0  27.0  0.0  0  0  0
133 2 2.0  28.0  0.0  0  0  0
134 2 2.0  29.0  0.0  0  0  0
135 2 2.0  30.0  0.0  0  0  0
136 1 2.0  31.0  0.0   0  0  0  
137 1 2.0  32.0  0.0   0  0  0  
138 1 2.0  33.0  0.0   0  0  0  
139 1 2.0  34.0  0.0   0  0  0  
140 2 2.0  35.0  0.0  0  0  0
141 2 2.0  36.0  0.0  0  0  0
142 2 2.0  37.0  0.0  0  0  0
143 2 2.0  38.0  0.0  0  0  0
144 2 2.0  39.0  0.0  0  0  0
145 2 2.0  40.0  0.0  0  0  0
146 2 2.0  41.0  0.0  0  0  0
147 2 2.0  42.0  0.0  0  0  0
148 2 2.0  43.0  0.0  0  0  0
149 2 2.0  44.0  0.0  0  0  0
150 2 2.0  45.0  0.0  0  0  0
151 2 2.0  46.0  0.0  0  0  0
152 2 2.0  47.0  0.0  0  0  0
153 2 2.0  48.0  0.0  0  0  0
154 1 2.0  49.0  0.0   0  0  0  
155 1 2.0  50.0  0.0   0  0  0  
156 1 2.0  51.0  0.0   0  0  0  
157 1 2.0  52.0  0.0   0  0  0  
158 2 2.0  53.0  0.0  0  0  0
159 2 2.0  54.0  0.0  0  0  0
160 1 2.0  55.0  0.0   0  0  0  
161 1 2.0  56.0  0.0   0  0  0  
162 1 2.0  57.0  0.0   0  0  0  
163 2 2.0  58.0  0.0  0  0  0
164 2 2.0  59.0  0.0  0  0  0
165 2 2.0  60.0  0.0  0  0  0
166 2 2.0  61.0  0.0  0  0  0
167 2 2.0  62.0  0.0  0  0  0
168 2 2.0  63.0  0.0  0  0  0
169 2 2.0  64.0  0.0  0  0  0
170 2 2.0  65.0  0.0  0  0  0
171 2 2.0  66.0  0.0  0  0  0
172 1 2.0  67.0  0.0   0  0  0  
173 1 2.0  68.0  0.0   0  0  0  
174 1 2.0  69.0  0.0   0  0  0  
175 2 2.0  70.0  0.0  0  0  0
176 2 2.0  71.0  0.0  0  0  0
177 2 2.0  72.0  0.0  0  0  0
178 2 2.0  73.0  0.0  0  0  0
179 1 2.0  74.0  0.0   0  0  0  
180 1 2.0  75.0  0.0   0  0  0  
181 1 2.0  76.0  0.0   0  0  0  
182 2 2.0  77.0  0.0  0  0  0
183 2 2.0  78.0  0.0  0  0  0
184 2 2.0  79.0  0.0  0  0  0
185 2 2.0  80.0  0.0  0  0  0
186 2 2.0  81.0  0.0  0  0  0
187 2 2.0  82.0  0.0  0  0  0
188 2 2.0  83.0  0.0  0  0  0
189 2 2.0  84.0  0.0  0  0  0
190 2 2.0  85.0  0.0  0  0  0
191 2 2.0  86.0  0.0  0  0  0
192 2 2.0  87.0  0.0  0  0  0
193 2 2.0  88.0  0.0  0  0  0
194 2 2.0  89.0  0.0  0  0  0
195 2 2.0  90.0  0.0  0  0  0
196 2 2.0  91.0  0.0  0  0  0
197 2 2.0  92.0  0.0  0  0  0
198 2 2.0  93.0  0.0  0  0  0
199 2 2.0  94.0  0.0  0  0  0
200 2 2.0  95.0  0.0  0  0  0
201 2 2.0  96.0  0.0  0  0  0
202 2 2.0  97.0  0.0  0  0  0
203 1 2.0  98.0  0.0   0  0  0  
204 1 2.0  99.0  0.0   0  0  0  
205 1 2.0  100.0  0.0   0  0  0  
206 1 2.0  101.0  0.0   0  0  0  
207 2 2.0  102.0  0.0  0  0  0
208 2 2.0  103.0  0.0  0  0  0
209 2 2.0  104.0  0.0  0  0  0
210 1 2.0  105.0  0.0   0  0  0  
211 2 3.0  1.0  0.0  0  0  0
212 2 3.0  2.0  0.0  0  0  0
213 2 3.0  3.0  0.0  0  0  0
214 2 3.0  4.0  0.0  0  0  0
215 1 3.0  5.0  0.0   0  0  0  
216 1 3.0  6.0  0.0   0  0  0  
217 1 3.0  7.0  0.0   0  0  0  
218 2 3.0  8.0  0.0  0  0  0
219 1 3.0  9.0  0.0   0  0  0  
220 1 3.0  10.0  0.0   0  0  0  
221 1 3.0  11.0  0.0   0  0  0  
222 1 3.0  12.0  0.0   0  0  0  
223 1 3.0  13.0  0.0   0  0  0  
224 1 3.0  14.0  0.0   0  0  0  
225 1 3.0  15.0  0.0   0  0  0  
226 1 3.0  16.0  0.0   0  0  0  
227 1 3.0  17.0  0.0   0  0  0  
228 1 3.0  18.0  0.0   0  0  0  
229 1 3.0  19.0  0.0   0  0  0  
230 1 3.0  20.0  0.0   0  0  0  
231 2 3.0  21.0  0.0  0  0  0
232 2 3.0  22.0  0.0  0  0  0
233 2 3.0  23.0  0.0  0  0  0
234 2 3.0  24.0  0.0  0  0  0
235 2 3.0  25.0  0.0  0  0  0
236 2 3.0  26.0  0.0  0  0  0
237 2 3.0  27.0  0.0  0  0  0
238 2 3.0  28.0  0.0  0  0  0
239 2 3.0  29.0  0.0  0  0  0
240 2 3.0  30.0  0.0  0  0  0
241 1 3.0  31.0  0.0   0  0  0  
242 1 3.0  32.0  0.0   0  0  0  
243 1 3.0  33.0  0.0   0  0  0  
244 2 3.0  34.0  0.0  0  0  0
245 2 3.0  35.0  0.0  0  0  0
246 2 3.0  36.0  0.0  0  0  0
247 2 3.0  37.0  0.0  0  0  0
248 2 3.0  38.0  0.0  0  0  0
249 2 3.0  39.0  0.0  0  0  0
250 2 3.0  40.0  0.0  0  0  0
251 2 3.0  41.0  0.0  0  0  0
252 2 3.0  42.0  0.0  0  0  0
253 2 3.0  43.0  0.0  0  0  0
254 2 3.0  44.0  0.0  0  0  0
255 2 3.0  45.0  0.0  0  0  0
256 2 3.0  46.0  0.0  0  0  0
257 2 3.0  47.0  0.0  0  0  0
258 2 3.0  48.0  0.0  0  0  0
259 1 3.0  49.0  0.0   0  0  0  
260 1 3.0  50.0  0.0   0  0  0  
261 1 3.0  51.0  0.0   0  0  0  
262 2 3.0  52.0  0.0  0  0  0
263 2 3.0  53.0  0.0  0  0  0
264 2 3.0  54.0  0.0  0  0  0
265 1 3.0  55.0  0.0   0  0  0  
266 1 3.0  56.0  0.0   0  0  0  
267 1 3.0  57.0  0.0   0  0  0  
268 2 3.0  58.0  0.0  0  0  0
269 2 3.0  59.0  0.0  0  0  0
270 2 3.0  60.0  0.0  0  0  0
271 2 3.0  61.0  0.0  0  0  0
272 2 3.0  62.0  0.0  0  0  0
273 2 3.0  63.0  0.0  0  0  0
274 2 3.0  64.0  0.0  0  0  0
275 2 3.0  65.0  0.0  0  0  0
276 2 3.0  66.0  0.0  0  0  0
277 1 3.0  67.0  0.0   0  0  0  
278 1 3.0  68.0  0.0   0  0  0  
279 1 3.0  69.0  0.0   0  0  0  
280 2 3.0  70.0  0.0  0  0  0
281 2 3.0  71.0  0.0  0  0  0
282 2 3.0  72.0  0.0  0  0  0
283 2 3.0  73.0  0.0  0  0  0
284 1 3.0  74.0  0.0   0  0  0  
285 1 3.0  75.0  0.0   0  0  0  
286 1 3.0  76.0  0.0   0  0  0  
287 2 3.0  77.0  0.0  0  0  0
288 2 3.0  78.0  0.0  0  0  0
289 2 3.0  79.0  0.0  0  0  0
290 2 3.0  80.0  0.0  0  0  0
291 2 3.0  81.0  0.0  0  0  0
292 2 3.0  82.0  0.0  0  0  0
293 2 3.0  83.0  0.0  0  0  0
294 2 3.0  84.0  0.0  0  0  0
295 2 3.0  85.0  0.0  0  0  0
296 2 3.0  86.0  0.0  0  0  0
297 2 3.0  87.0  0.0  0  0  0
298 2 3.0  88.0  0.0  0  0  0
299 2 3.0  89.0  0.0  0  0  0
300 1 3.0  90.0  0.0   0  0  0  
301 1 3.0  91.0  0.0   0  0  0  
302 1 3.0  92.0  0.0   0  0  0  
303 1 3.0  93.0  0.0   0  0  0  
304 1 3.0  94.0  0.0   0  0  0  
305 1 3.0  95.0  0.0   0  0  0  
306 1 3.0  96.0  0.0   0  0  0  
307 1 3.0  97.0  0.0   0  0  0  
308 1 3.0  98.0  0.0   0  0  0  
309 1 3.0  99.0  0.0   0  0  0  
310 1 3.0  100.0  0.0   0  0  0  
311 1 3.0  101.0  0.0   0  0  0  
312 2 3.0  102.0  0.0  0  0  0
313 2 3.0  103.0  0.0  0  0  0
314 2 3.0  104.0  0.0  0  0  0
315 1 3.0  105.0  0.0   0  0  0  
316 2 4.0  1.0  0.0  0  0  0
317 2 4.0  2.0  0.0  0  0  0
318 2 4.0  3.0  0.0  0  0  0
319 2 4.0  4.0  0.0  0  0  0
320 1 4.0  5.0  0.0   0  0  0  
321 1 4.0  6.0  0.0   0  0  0  
322 1 4.0  7.0  0.0   0  0  0  
323 2 4.0  8.0  0.0  0  0  0
324 2 4.0  9.0  0.0  0  0  0
325 2 4.0  10.0  0.0  0  0  0
326 2 4.0  11.0  0.0  0  0  0
327 2 4.0  12.0  0.0  0  0  0
328 2 4.0  13.0  0.0  0  0  0
329 1 4.0  14.0  0.0   0  0  0  
330 1 4.0  15.0  0.0   0  0  0  
331 1 4.0  16.0  0.0   0  0  0  
332 2 4.0  17.0  0.0  0  0  0
333 2 4.0  18.0  0.0  0  0  0
334 2 4.0  19.0  0.0  0  0  0
335 2 4.0  20.0  0.0  0  0  0
336 2 4.0  21.0  0.0  0  0  0
337 2 4.0  22.0  0.0  0  0  0
338 2 4.0  23.0  0.0  0  0  0
339 2 4.0  24.0  0.0  0  0  0
340 2 4.0  25.0  0.0  0  0  0
341 2 4.0  26.0  0.0  0  0  0
342 2 4.0  27.0  0.0  0  0  0
343 2 4.0  28.0  0.0  0  0  0
344 2 4.0  29.0  0.0  0  0  0
345 2 4.0  30.0  0.0  0  0  0
346 1 4.0  31.0  0.0   0  0  0  
347 1 4.0  32.0  0.0   0  0  0  
348 1 4.0  33.0  0.0   0  0  0  
349 2 4.0  34.0  0.0  0  0  0
350 2 4.0  35.0  0.0  0  0  0
351 2 4.0  36.0  0.0  0  0  0
352 2 4.0  37.0  0.0  0  0  0
353 2 4.0  38.0  0.0  0  0  0
354 2 4.0  39.0  0.0  0  0  0
355 2 4.0  40.0  0.0  0  0  0
356 2 4.0  41.0  0.0  0  0  0
357 2 4.0  42.0  0.0  0  0  0
358 2 4.0  43.0  0.0  0  0  0
359 1 4.0  44.0  0.0   0  0  0  
360 1 4.0  45.0  0.0   0  0  0  
361 1 4.0  46.0  0.0   0  0  0  
362 1 4.0  47.0  0.0   0  0  0  
363 1 4.0  48.0  0.0   0  0  0  
364 1 4.0  49.0  0.0   0  0  0  
365 1 4.0  50.0  0.0   0  0  0  
366 1 4.0  51.0  0.0   0  0  0  
367 1 4.0  52.0  0.0   0  0  0  
368 1 4.0  53.0  0.0   0  0  0  
369 1 4.0  54.0  0.0   0  0  0  
370 1 4.0  55.0  0.0   0  0  0  
371 1 4.0  56.0  0.0   0  0  0  
372 1 4.0  57.0  0.0   0  0  0  
373 1 4.0  58.0  0.0   0  0  0  
374 1 4.0  59.0  0.0   0  0  0  
375 1 4.0  60.0  0.0   0  0  0  
376 1 4.0  61.0  0.0   0  0  0  
377 1 4.0  62.0  0.0   0  0  0  
378 1 4.0  63.0  0.0   0  0  0  
379 2 4.0  64.0  0.0  0  0  0
380 2 4.0  65.0  0.0  0  0  0
381 2 4.0  66.0  0.0  0  0  0
382 1 4.0  67.0  0.0   0  0  0  
383 1 4.0  68.0  0.0   0  0  0  
384 1 4.0  69.0  0.0   0  0  0  
385 2 4.0  70.0  0.0  0  0  0
386 2 4.0  71.0  0.0  0  0  0
387 2 4.0  72.0  0.0  0  0  0
388 2 4.0  73.0  0.0  0  0  0
389 1 4.0  74.0  0.0   0  0  0  
390 1 4.0  75.0  0.0   0  0  0  
391 1 4.0  76.0  0.0   0  0  0  
392 2 4.0  77.0  0.0  0  0  0
393 2 4.0  78.0  0.0  0  0  0
394 2 4.0  79.0  0.0  0  0  0
395 2 4.0  80.0  0.0  0  0  0
396 2 4.0  81.0  0.0  0  0  0
397 2 4.0  82.0  0.0  0  0  0
398 2 4.0  83.0  0.0  0  0  0
399 2 4.0  84.0  0.0  0  0  0
400 2 4.0  85.0  0.0  0  0  0
401 2 4.0  86.0  0.0  0  0  0
402 2 4.0  87.0  0.0  0  0  0
403 1 4.0  88.0  0.0   0  0  0  
404 1 4.0  89.0  0.0   0  0  0  
405 1 4.0  90.0  0.0   0  0  0  
406 1 4.0  91.0  0.0   0  0  0  
407 1 4.0  92.0  0.0   0  0  0  
408 1 4.0  93.0  0.0   0  0  0  
409 1 4.0  94.0  0.0   0  0  0  
410 1 4.0  95.0  0.0   0  0  0  
411 2 4.0  96.0  0.0  0  0  0
412 2 4.0  97.0  0.0  0  0  0
413 2 4.0  98.0  0.0  0  0  0
414 2 4.0  99.0  0.0  0  0  0
415 2 4.0  100.0  0.0  0  0  0
416 1 4.0  101.0  0.0   0  0  0  
417 1 4.0  102.0  0.0   0  0  0  
418 2 4.0  103.0  0.0  0  0  0
419 2 4.0  104.0  0.0  0  0  0
420 1 4.0  105.0  0.0   0  0  0  
421 2 5.0  1.0  0.0  0  0  0
422 2 5.0  2.0  0.0  0  0  0
423 2 5.0  3.0  0.0  0  0  0
424 2 5.0  4.0  0.0  0  0  0
425 1 5.0  5.0  0.0   0  0  0  
426 1 5.0  6.0  0.0   0  0  0  
427 1 5.0  7.0  0.0   0  0  0  
428 1 5.0  8.0  0.0   0  0  0  
429 1 5.0  9.0  0.0   0  0  0  
430 1 5.0  10.0  0.0   0  0  0  
431 1 5.0  11.0  0.0   0  0  0  
432 1 5.0  12.0  0.0   0  0  0  
433 1 5.0  13.0  0.0   0  0  0  
434 1 5.0  14.0  0.0   0  0  0  
435 1 5.0  15.0  0.0   0  0  0  
436 1 5.0  16.0  0.0   0  0  0  
437 1 5.0  17.0  0.0   0  0  0  
438 1 5.0  18.0  0.0   0  0  0  
439 1 5.0  19.0  0.0   0  0  0  
440 1 5.0  20.0  0.0   0  0  0  
441 2 5.0  21.0  0.0  0  0  0
442 2 5.0  22.0  0.0  0  0  0
443 2 5.0  23.0  0.0  0  0  0
444 2 5.0  24.0  0.0  0  0  0
445 2 5.0  25.0  0.0  0  0  0
446 2 5.0  26.0  0.0  0  0  0
447 2 5.0  27.0  0.0  0  0  0
448 2 5.0  28.0  0.0  0  0  0
449 2 5.0  29.0  0.0  0  0  0
450 2 5.0  30.0  0.0  0  0  0
451 1 5.0  31.0  0.0   0  0  0  
452 1 5.0  32.0  0.0   0  0  0  
453 1 5.0  33.0  0.0   0  0  0  
454 2 5.0  34.0  0.0  0  0  0
455 2 5.0  35.0  0.0  0  0  0
456 2 5.0  36.0  0.0  0  0  0
457 2 5.0  37.0  0.0  0  0  0
458 2 5.0  38.0  0.0  0  0  0
459 2 5.0  39.0  0.0  0  0  0
460 2 5.0  40.0  0.0  0  0  0
461 2 5.0  41.0  0.0  0  0  0
462 2 5.0  42.0  0.0  0  0  0
463 2 5.0  43.0  0.0  0  0  0
464 1 5.0  44.0  0.0   0  0  0  
465 1 5.0  45.0  0.0   0  0  0  
466 1 5.0  46.0  0.0   0  0  0  
467 1 5.0  47.0  0.0   0  0  0  
468 1 5.0  48.0  0.0   0  0  0  
469 1 5.0  49.0  0.0   0  0  0  
470 1 5.0  50.0  0.0   0  0  0  
471 1 5.0  51.0  0.0   0  0  0  
472 1 5.0  52.0  0.0   0  0  0  
473 1 5.0  53.0  0.0   0  0  0  
474 1 5.0  54.0  0.0   0  0  0  
475 1 5.0  55.0  0.0   0  0  0  
476 1 5.0  56.0  0.0   0  0  0  
477 1 5.0  57.0  0.0   0  0  0  
478 1 5.0  58.0  0.0   0  0  0  
479 1 5.0  59.0  0.0   0  0  0  
480 1 5.0  60.0  0.0   0  0  0  
481 1 5.0  61.0  0.0   0  0  0  
482 1 5.0  62.0  0.0   0  0  0  
483 1 5.0  63.0  0.0   0  0  0  
484 2 5.0  64.0  0.0  0  0  0
485 2 5.0  65.0  0.0  0  0  0
486 2 5.0  66.0  0.0  0  0  0
487 1 5.0  67.0  0.0   0  0  0  
488 1 5.0  68.0  0.0   0  0  0  
489 1 5.0  69.0  0.0   0  0  0  
490 1 5.0  70.0  0.0   0  0  0  
491 1 5.0  71.0  0.0   0  0  0  
492 1 5.0  72.0  0.0   0  0  0  
493 1 5.0  73.0  0.0   0  0  0  
494 1 5.0  74.0  0.0   0  0  0  
495 1 5.0  75.0  0.0   0  0  0  
496 1 5.0  76.0  0.0   0  0  0  
497 1 5.0  77.0  0.0   0  0  0  
498 1 5.0  78.0  0.0   0  0  0  
499 1 5.0  79.0  0.0   0  0  0  
500 1 5.0  80.0  0.0   0  0  0  
501 1 5.0  81.0  0.0   0  0  0  
502 2 5.0  82.0  0.0  0  0  0
503 2 5.0  83.0  0.0  0  0  0
504 2 5.0  84.0  0.0  0  0  0
505 2 5.0  85.0  0.0  0  0  0
506 2 5.0  86.0  0.0  0  0  0
507 2 5.0  87.0  0.0  0  0  0
508 1 5.0  88.0  0.0   0  0  0  
509 1 5.0  89.0  0.0   0  0  0  
510 1 5.0  90.0  0.0   0  0  0  
511 2 5.0  91.0  0.0  0  0  0
512 2 5.0  92.0  0.0  0  0  0
513 2 5.0  93.0  0.0  0  0  0
514 1 5.0  94.0  0.0   0  0  0  
515 1 5.0  95.0  0.0   0  0  0  
516 1 5.0  96.0  0.0   0  0  0  
517 2 5.0  97.0  0.0  0  0  0
518 2 5.0  98.0  0.0  0  0  0
519 2 5.0  99.0  0.0  0  0  0
520 2 5.0  100.0  0.0  0  0  0
521 2 5.0  101.0  0.0  0  0  0
522 2 5.0  102.0  0.0  0  0  0
523 2 5.0  103.0  0.0  0  0  0
524 2 5.0  104.0  0.0  0  0  0
525 1 5.0  105.0  0.0   0  0  0  
526 2 6.0  1.0  0.0  0  0  0
527 2 6.0  2.0  0.0  0  0  0
528 1 6.0  3.0  0.0   0  0  0  
529 1 6.0  4.0  0.0   0  0  0  
530 1 6.0  5.0  0.0   0  0  0  
531 1 6.0  6.0  0.0   0  0  0  
532 1 6.0  7.0  0.0   0  0  0  
533 1 6.0  8.0  0.0   0  0  0  
534 1 6.0  9.0  0.0   0  0  0  
535 1 6.0  10.0  0.0   0  0  0  
536 1 6.0  11.0  0.0   0  0  0  
537 1 6.0  12.0  0.0   0  0  0  
538 1 6.0  13.0  0.0   0  0  0  
539 1 6.0  14.0  0.0   0  0  0  
540 1 6.0  15.0  0.0   0  0  0  
541 1 6.0  16.0  0.0   0  0  0  
542 1 6.0  17.0  0.0   0  0  0  
543 1 6.0  18.0  0.0   0  0  0  
544 1 6.0  19.0  0.0   0  0  0  
545 1 6.0  20.0  0.0   0  0  0  
546 2 6.0  21.0  0.0  0  0  0
547 2 6.0  22.0  0.0  0  0  0
548 2 6.0  23.0  0.0  0  0  0
549 2 6.0  24.0  0.0  0  0  0
550 2 6.0  25.0  0.0  0  0  0
551 2 6.0  26.0  0.0  0  0  0
552 2 6.0  27.0  0.0  0  0  0
553 2 6.0  28.0  0.0  0  0  0
554 2 6.0  29.0  0.0  0  0  0
555 2 6.0  30.0  0.0  0  0  0
556 1 6.0  31.0  0.0   0  0  0  
557 1 6.0  32.0  0.0   0  0  0  
558 1 6.0  33.0  0.0   0  0  0  
559 2 6.0  34.0  0.0  0  0  0
560 2 6.0  35.0  0.0  0  0  0
561 2 6.0  36.0  0.0  0  0  0
562 2 6.0  37.0  0.0  0  0  0
563 2 6.0  38.0  0.0  0  0  0
564 2 6.0  39.0  0.0  0  0  0
565 2 6.0  40.0  0.0  0  0  0
566 2 6.0  41.0  0.0  0  0  0
567 2 6.0  42.0  0.0  0  0  0
568 2 6.0  43.0  0.0  0  0  0
569 2 6.0  44.0  0.0  0  0  0
570 2 6.0  45.0  0.0  0  0  0
571 2 6.0  46.0  0.0  0  0  0
572 2 6.0  47.0  0.0  0  0  0
573 2 6.0  48.0  0.0  0  0  0
574 1 6.0  49.0  0.0   0  0  0  
575 1 6.0  50.0  0.0   0  0  0  
576 1 6.0  51.0  0.0   0  0  0  
577 2 6.0  52.0  0.0  0  0  0
578 2 6.0  53.0  0.0  0  0  0
579 2 6.0  54.0  0.0  0  0  0
580 1 6.0  55.0  0.0   0  0  0  
581 1 6.0  56.0  0.0   0  0  0  
582 1 6.0  57.0  0.0   0  0  0  
583 2 6.0  58.0  0.0  0  0  0
584 2 6.0  59.0  0.0  0  0  0
585 2 6.0  60.0  0.0  0  0  0
586 2 6.0  61.0  0.0  0  0  0
587 2 6.0  62.0  0.0  0  0  0
588 2 6.0  63.0  0.0  0  0  0
589 2 6.0  64.0  0.0  0  0  0
590 1 6.0  65.0  0.0   0  0  0  
591 1 6.0  66.0  0.0   0  0  0  
592 1 6.0  67.0  0.0   0  0  0  
593 1 6.0  68.0  0.0   0  0  0  
594 1 6.0  69.0  0.0   0  0  0  
595 1 6.0  70.0  0.0   0  0  0  
596 1 6.0  71.0  0.0   0  0  0  
597 1 6.0  72.0  0.0   0  0  0  
598 1 6.0  73.0  0.0   0  0  0  
599 1 6.0  74.0  0.0   0  0  0  
600 1 6.0  75.0  0.0   0  0  0  
601 1 6.0  76.0  0.0   0  0  0  
602 1 6.0  77.0  0.0   0  0  0  
603 1 6.0  78.0  0.0   0  0  0  
604 1 6.0  79.0  0.0   0  0  0  
605 1 6.0  80.0  0.0   0  0  0  
606 2 6.0  81.0  0.0  0  0  0
607 2 6.0  82.0  0.0  0  0  0
608 2 6.0  83.0  0.0  0  0  0
609 2 6.0  84.0  0.0  0  0  0
610 2 6.0  85.0  0.0  0  0  0
611 2 6.0  86.0  0.0  0  0  0
612 2 6.0  87.0  0.0  0  0  0
613 1 6.0  88.0  0.0   0  0  0  
614 1 6.0  89.0  0.0   0  0  0  
615 1 6.0  90.0  0.0   0  0  0  
616 2 6.0  91.0  0.0  0  0  0
617 2 6.0  92.0  0.0  0  0  0
618 2 6.0  93.0  0.0  0  0  0
619 1 6.0  94.0  0.0   0  0  0  
620 1 6.0  95.0  0.0   0  0  0  
621 1 6.0  96.0  0.0   0  0  0  
622 2 6.0  97.0  0.0  0  0  0
623 2 6.0  98.0  0.0  0  0  0
624 2 6.0  99.0  0.0  0  0  0
625 2 6.0  100.0  0.0  0  0  0
626 2 6.0  101.0  0.0  0  0  0
627 2 6.0  102.0  0.0  0  0  0
628 2 6.0  103.0  0.0  0  0  0
629 2 6.0  104.0  0.0  0  0  0
630 1 6.0  105.0  0.0   0  0  0  
631 2 7.0  1.0  0.0  0  0  0
632 2 7.0  2.0  0.0  0  0  0
633 1 7.0  3.0  0.0   0  0  0  
634 1 7.0  4.0  0.0   0  0  0  
635 1 7.0  5.0  0.0   0  0  0  
636 1 7.0  6.0  0.0   0  0  0  
637 1 7.0  7.0  0.0   0  0  0  
638 1 7.0  8.0  0.0   0  0  0  
639 1 7.0  9.0  0.0   0  0  0  
640 2 7.0  10.0  0.0  0  0  0
641 2 7.0  11.0  0.0  0  0  0
642 2 7.0  12.0  0.0  0  0  0
643 2 7.0  13.0  0.0  0  0  0
644 1 7.0  14.0  0.0   0  0  0  
645 1 7.0  15.0  0.0   0  0  0  
646 1 7.0  16.0  0.0   0  0  0  
647 2 7.0  17.0  0.0  0  0  0
648 2 7.0  18.0  0.0  0  0  0
649 2 7.0  19.0  0.0  0  0  0
650 2 7.0  20.0  0.0  0  0  0
651 2 7.0  21.0  0.0  0  0  0
652 2 7.0  22.0  0.0  0  0  0
653 2 7.0  23.0  0.0  0  0  0
654 2 7.0  24.0  0.0  0  0  0
655 2 7.0  25.0  0.0  0  0  0
656 2 7.0  26.0  0.0  0  0  0
657 2 7.0  27.0  0.0  0  0  0
658 2 7.0  28.0  0.0  0  0  0
659 2 7.0  29.0  0.0  0  0  0
660 2 7.0  30.0  0.0  0  0  0
661 1 7.0  31.0  0.0   0  0  0  
662 1 7.0  32.0  0.0   0  0  0  
663 1 7.0  33.0  0.0   0  0  0  
664 1 7.0  34.0  0.0   0  0  0  
665 2 7.0  35.0  0.0  0  0  0
666 2 7.0  36.0  0.0  0  0  0
667 2 7.0  37.0  0.0  0  0  0
668 2 7.0  38.0  0.0  0  0  0
669 2 7.0  39.0  0.0  0  0  0
670 2 7.0  40.0  0.0  0  0  0
671 2 7.0  41.0  0.0  0  0  0
672 2 7.0  42.0  0.0  0  0  0
673 2 7.0  43.0  0.0  0  0  0
674 2 7.0  44.0  0.0  0  0  0
675 2 7.0  45.0  0.0  0  0  0
676 2 7.0  46.0  0.0  0  0  0
677 2 7.0  47.0  0.0  0  0  0
678 2 7.0  48.0  0.0  0  0  0
679 1 7.0  49.0  0.0   0  0  0  
680 1 7.0  50.0  0.0   0  0  0  
681 1 7.0  51.0  0.0   0  0  0  
682 1 7.0  52.0  0.0   0  0  0  
683 2 7.0  53.0  0.0  0  0  0
684 2 7.0  54.0  0.0  0  0  0
685 1 7.0  55.0  0.0   0  0  0  
686 1 7.0  56.0  0.0   0  0  0  
687 1 7.0  57.0  0.0   0  0  0  
688 2 7.0  58.0  0.0  0  0  0
689 2 7.0  59.0  0.0  0  0  0
690 2 7.0  60.0  0.0  0  0  0
691 2 7.0  61.0  0.0  0  0  0
692 2 7.0  62.0  0.0  0  0  0
693 2 7.0  63.0  0.0  0  0  0
694 2 7.0  64.0  0.0  0  0  0
695 1 7.0  65.0  0.0   0  0  0  
696 1 7.0  66.0  0.0   0  0  0  
697 1 7.0  67.0  0.0   0  0  0  
698 1 7.0  68.0  0.0   0  0  0  
699 1 7.0  69.0  0.0   0  0  0  
700 1 7.0  70.0  0.0   0  0  0  
701 1 7.0  71.0  0.0   0  0  0  
702 2 7.0  72.0  0.0  0  0  0
703 2 7.0  73.0  0.0  0  0  0
704 1 7.0  74.0  0.0   0  0  0  
705 1 7.0  75.0  0.0   0  0  0  
706 1 7.0  76.0  0.0   0  0  0  
707 2 7.0  77.0  0.0  0  0  0
708 2 7.0  78.0  0.0  0  0  0
709 1 7.0  79.0  0.0   0  0  0  
710 1 7.0  80.0  0.0   0  0  0  
711 2 7.0  81.0  0.0  0  0  0
712 2 7.0  82.0  0.0  0  0  0
713 2 7.0  83.0  0.0  0  0  0
714 2 7.0  84.0  0.0  0  0  0
715 2 7.0  85.0  0.0  0  0  0
716 2 7.0  86.0  0.0  0  0  0
717 2 7.0  87.0  0.0  0  0  0
718 1 7.0  88.0  0.0   0  0  0  
719 1 7.0  89.0  0.0   0  0  0  
720 1 7.0  90.0  0.0   0  0  0  
721 2 7.0  91.0  0.0  0  0  0
722 2 7.0  92.0  0.0  0  0  0
723 2 7.0  93.0  0.0  0  0  0
724 1 7.0  94.0  0.0   0  0  0  
725 1 7.0  95.0  0.0   0  0  0  
726 1 7.0  96.0  0.0   0  0  0  
727 2 7.0  97.0  0.0  0  0  0
728 2 7.0  98.0  0.0  0  0  0
729 2 7.0  99.0  0.0  0  0  0
730 2 7.0  100.0  0.0  0  0  0
731 2 7.0  101.0  0.0  0  0  0
732 2 7.0  102.0  0.0  0  0  0
733 2 7.0  103.0  0.0  0  0  0
734 2 7.0  104.0  0.0  0  0  0
735 1 7.0  105.0  0.0   0  0  0  
736 2 8.0  1.0  0.0  0  0  0
737 2 8.0  2.0  0.0  0  0  0
738 1 8.0  3.0  0.0   0  0  0  
739 1 8.0  4.0  0.0   0  0  0  
740 1 8.0  5.0  0.0   0  0  0  
741 1 8.0  6.0  0.0   0  0  0  
742 1 8.0  7.0  0.0   0  0  0  
743 2 8.0  8.0  0.0  0  0  0
744 1 8.0  9.0  0.0   0  0  0  
745 1 8.0  10.0  0.0   0  0  0  
746 1 8.0  11.0  0.0   0  0  0  
747 1 8.0  12.0  0.0   0  0  0  
748 1 8.0  13.0  0.0   0  0  0  
749 1 8.0  14.0  0.0   0  0  0  
750 1 8.0  15.0  0.0   0  0  0  
751 1 8.0  16.0  0.0   0  0  0  
752 1 8.0  17.0  0.0   0  0  0  
753 1 8.0  18.0  0.0   0  0  0  
754 1 8.0  19.0  0.0   0  0  0  
755 1 8.0  20.0  0.0   0  0  0  
756 1 8.0  21.0  0.0   0  0  0  
757 2 8.0  22.0  0.0  0  0  0
758 2 8.0  23.0  0.0  0  0  0
759 2 8.0  24.0  0.0  0  0  0
760 2 8.0  25.0  0.0  0  0  0
761 2 8.0  26.0  0.0  0  0  0
762 2 8.0  27.0  0.0  0  0  0
763 2 8.0  28.0  0.0  0  0  0
764 2 8.0  29.0  0.0  0  0  0
765 2 8.0  30.0  0.0  0  0  0
766 1 8.0  31.0  0.0   0  0  0  
767 1 8.0  32.0  0.0   0  0  0  
768 1 8.0  33.0  0.0   0  0  0  
769 1 8.0  34.0  0.0   0  0  0  
770 2 8.0  35.0  0.0  0  0  0
771 2 8.0  36.0  0.0  0  0  0
772 2 8.0  37.0  0.0  0  0  0
773 2 8.0  38.0  0.0  0  0  0
774 2 8.0  39.0  0.0  0  0  0
775 2 8.0  40.0  0.0  0  0  0
776 2 8.0  41.0  0.0  0  0  0
777 2 8.0  42.0  0.0  0  0  0
778 2 8.0  43.0  0.0  0  0  0
779 2 8.0  44.0  0.0  0  0  0
780 2 8.0  45.0  0.0  0  0  0
781 2 8.0  46.0  0.0  0  0  0
782 2 8.0  47.0  0.0  0  0  0
783 2 8.0  48.0  0.0  0  0  0
784 2 8.0  49.0  0.0  0  0  0
785 2 8.0  50.0  0.0  0  0  0
786 2 8.0  51.0  0.0  0  0  0
787 2 8.0  52.0  0.0  0  0  0
788 2 8.0  53.0  0.0  0  0  0
789 2 8.0  54.0  0.0  0  0  0
790 2 8.0  55.0  0.0  0  0  0
791 2 8.0  56.0  0.0  0  0  0
792 2 8.0  57.0  0.0  0  0  0
793 2 8.0  58.0  0.0  0  0  0
794 2 8.0  59.0  0.0  0  0  0
795 2 8.0  60.0  0.0  0  0  0
796 2 8.0  61.0  0.0  0  0  0
797 2 8.0  62.0  0.0  0  0  0
798 2 8.0  63.0  0.0  0  0  0
799 2 8.0  64.0  0.0  0  0  0
800 1 8.0  65.0  0.0   0  0  0  
801 1 8.0  66.0  0.0   0  0  0  
802 1 8.0  67.0  0.0   0  0  0  
803 1 8.0  68.0  0.0   0  0  0  
804 1 8.0  69.0  0.0   0  0  0  
805 1 8.0  70.0  0.0   0  0  0  
806 1 8.0  71.0  0.0   0  0  0  
807 1 8.0  72.0  0.0   0  0  0  
808 2 8.0  73.0  0.0  0  0  0
809 1 8.0  74.0  0.0   0  0  0  
810 1 8.0  75.0  0.0   0  0  0  
811 1 8.0  76.0  0.0   0  0  0  
812 2 8.0  77.0  0.0  0  0  0
813 2 8.0  78.0  0.0  0  0  0
814 1 8.0  79.0  0.0   0  0  0  
815 1 8.0  80.0  0.0   0  0  0  
816 2 8.0  81.0  0.0  0  0  0
817 2 8.0  82.0  0.0  0  0  0
818 2 8.0  83.0  0.0  0  0  0
819 2 8.0  84.0  0.0  0  0  0
820 2 8.0  85.0  0.0  0  0  0
821 2 8.0  86.0  0.0  0  0  0
822 1 8.0  87.0  0.0   0  0  0  
823 1 8.0  88.0  0.0   0  0  0  
824 1 8.0  89.0  0.0   0  0  0  
825 1 8.0  90.0  0.0   0  0  0  
826 2 8.0  91.0  0.0  0  0  0
827 2 8.0  92.0  0.0  0  0  0
828 2 8.0  93.0  0.0  0  0  0
829 1 8.0  94.0  0.0   0  0  0  
830 1 8.0  95.0  0.0   0  0  0  
831 1 8.0  96.0  0.0   0  0  0  
832 2 8.0  97.0  0.0  0  0  0
833 2 8.0  98.0  0.0  0  0  0
834 2 8.0  99.0  0.0  0  0  0
835 2 8.0  100.0  0.0  0  0  0
836 2 8.0  101.0  0.0  0  0  0
837 2 8.0  102.0  0.0  0  0  0
838 2 8.0  103.0  0.0  0  0  0
839 2 8.0  104.0  0.0  0  0  0
840 1 8.0  105.0  0.0   0  0  0  
841 2 9.0  1.0  0.0  0  0  0
842 1 9.0  2.0  0.0   0  0  0  
843 1 9.0  3.0  0.0   0  0  0  
844 1 9.0  4.0  0.0   0  0  0  
845 1 9.0  5.0  0.0   0  0  0  
846 1 9.0  6.0  0.0   0  0  0  
847 1 9.0  7.0  0.0   0  0  0  
848 2 9.0  8.0  0.0  0  0  0
849 2 9.0  9.0  0.0  0  0  0
850 2 9.0  10.0  0.0  0  0  0
851 2 9.0  11.0  0.0  0  0  0
852 2 9.0  12.0  0.0  0  0  0
853 2 9.0  13.0  0.0  0  0  0
854 2 9.0  14.0  0.0  0  0  0
855 2 9.0  15.0  0.0  0  0  0
856 2 9.0  16.0  0.0  0  0  0
857 2 9.0  17.0  0.0  0  0  0
858 2 9.0  18.0  0.0  0  0  0
859 2 9.0  19.0  0.0  0  0  0
860 2 9.0  20.0  0.0  0  0  0
861 2 9.0  21.0  0.0  0  0  0
862 2 9.0  22.0  0.0  0  0  0
863 2 9.0  23.0  0.0  0  0  0
864 2 9.0  24.0  0.0  0  0  0
865 2 9.0  25.0  0.0  0  0  0
866 2 9.0  26.0  0.0  0  0  0
867 2 9.0  27.0  0.0  0  0  0
868 2 9.0  28.0  0.0  0  0  0
869 2 9.0  29.0  0.0  0  0  0
870 2 9.0  30.0  0.0  0  0  0
871 1 9.0  31.0  0.0   0  0  0  
872 1 9.0  32.0  0.0   0  0  0  
873 1 9.0  33.0  0.0   0  0  0  
874 1 9.0  34.0  0.0   0  0  0  
875 2 9.0  35.0  0.0  0  0  0
876 2 9.0  36.0  0.0  0  0  0
877 2 9.0  37.0  0.0  0  0  0
878 2 9.0  38.0  0.0  0  0  0
879 2 9.0  39.0  0.0  0  0  0
880 2 9.0  40.0  0.0  0  0  0
881 2 9.0  41.0  0.0  0  0  0
882 2 9.0  42.0  0.0  0  0  0
883 2 9.0  43.0  0.0  0  0  0
884 2 9.0  44.0  0.0  0  0  0
885 1 9.0  45.0  0.0   0  0  0  
886 1 9.0  46.0  0.0   0  0  0  
887 1 9.0  47.0  0.0   0  0  0  
888 1 9.0  48.0  0.0   0  0  0  
889 1 9.0  49.0  0.0   0  0  0  
890 1 9.0  50.0  0.0   0  0  0  
891 1 9.0  51.0  0.0   0  0  0  
892 1 9.0  52.0  0.0   0  0  0  
893 1 9.0  53.0  0.0   0  0  0  
894 1 9.0  54.0  0.0   0  0  0  
895 1 9.0  55.0  0.0   0  0  0  
896 1 9.0  56.0  0.0   0  0  0  
897 1 9.0  57.0  0.0   0  0  0  
898 1 9.0  58.0  0.0   0  0  0  
899 1 9.0  59.0  0.0   0  0  0  
900 1 9.0  60.0  0.0   0  0  0  
901 1 9.0  61.0  0.0   0  0  0  
902 2 9.0  62.0  0.0  0  0  0
903 2 9.0  63.0  0.0  0  0  0
904 1 9.0  64.0  0.0   0  0  0  
905 1 9.0  65.0  0.0   0  0  0  
906 1 9.0  66.0  0.0   0  0  0  
907 1 9.0  67.0  0.0   0  0  0  
908 1 9.0  68.0  0.0   0  0  0  
909 1 9.0  69.0  0.0   0  0  0  
910 1 9.0  70.0  0.0   0  0  0  
911 1 9.0  71.0  0.0   0  0  0  
912 2 9.0  72.0  0.0  0  0  0
913 2 9.0  73.0  0.0  0  0  0
914 1 9.0  74.0  0.0   0  0  0  
915 1 9.0  75.0  0.0   0  0  0  
916 1 9.0  76.0  0.0   0  0  0  
917 2 9.0  77.0  0.0  0  0  0
918 2 9.0  78.0  0.0  0  0  0
919 1 9.0  79.0  0.0   0  0  0  
920 1 9.0  80.0  0.0   0  0  0  
921 2 9.0  81.0  0.0  0  0  0
922 2 9.0  82.0  0.0  0  0  0
923 2 9.0  83.0  0.0  0  0  0
924 2 9.0  84.0  0.0  0  0  0
925 2 9.0  85.0  0.0  0  0  0
926 2 9.0  86.0  0.0  0  0  0
927 1 9.0  87.0  0.0   0  0  0  
928 1 9.0  88.0  0.0   0  0  0  
929 1 9.0  89.0  0.0   0  0  0  
930 2 9.0  90.0  0.0  0  0  0
931 2 9.0  91.0  0.0  0  0  0
932 2 9.0  92.0  0.0  0  0  0
933 2 9.0  93.0  0.0  0  0  0