LAMMPS data file via write_data, version 8 Jun 2016-ICMS, timestep = 25000

819 atoms
2 atom types

0.0000000000000000e+000 2.1000000000000000e+001 xlo xhi
0.0000000000000000e+000 4.1000000000000000e+001 ylo yhi
-1.0000000000000000e+000 1.0000000000000000e+000 zlo zhi

Masses

1 1
2 1

Pair Coeffs # lj/cut

1 1.5 1
2 1.5 1

Atoms # atomic

815 2 1.1990385385155806e+000 5.3078070189889415e-001 0.0000000000000000e+000 1 1 0
500 2 2.5878312496600492e-001 6.6799785278277291e-001 0.0000000000000000e+000 1 0 0
408 2 2.2017079943088467e+000 4.6334961725344120e-001 0.0000000000000000e+000 0 1 0
413 2 1.7249847485590166e+000 1.2470532364952398e+000 0.0000000000000000e+000 1 0 0
370 2 3.7525886521663669e+000 1.3311458913857939e+000 0.0000000000000000e+000 0 0 0
537 1 2.8101409227352740e+000 1.2880807799018048e+000 0.0000000000000000e+000 1 0 0
781 2 3.3561160154598038e+000 3.7977610237203463e-001 0.0000000000000000e+000 1 0 0
536 2 4.2880439284587988e+000 4.2558103429705751e-001 0.0000000000000000e+000 1 0 0
658 2 4.7746466695332934e+000 1.1773260226710773e+000 0.0000000000000000e+000 1 0 0
195 1 5.5378156739151807e+000 5.4802570146537788e-001 0.0000000000000000e+000 0 1 0
44 2 6.6991696236732672e+000 1.4119407491540321e+000 0.0000000000000000e+000 0 0 0
779 1 6.4867949160635741e+000 3.1149332609258990e-001 0.0000000000000000e+000 1 1 0
745 2 7.6797021891048871e+000 4.0145048201628170e-001 0.0000000000000000e+000 1 0 0
684 1 8.6878465540144987e+000 1.0547760373814419e+000 0.0000000000000000e+000 1 1 0
87 1 9.5453303734273636e+000 4.4889570766843406e-001 0.0000000000000000e+000 0 0 0
653 1 1.0425742329888140e+001 1.1926641009675032e+000 0.0000000000000000e+000 0 1 0
734 2 1.1494997761475211e+001 9.1420244054610356e-001 0.0000000000000000e+000 0 1 0
607 2 1.3507060012605251e+001 1.3838455315497040e+000 0.0000000000000000e+000 0 1 0
446 1 1.2958404282203215e+001 4.6972823855567586e-001 0.0000000000000000e+000 0 1 0
596 2 1.5232167923268218e+001 6.7009103534929559e-001 0.0000000000000000e+000 0 1 0
241 1 1.4027728692779386e+001 5.2812962979564715e-001 0.0000000000000000e+000 0 1 0
166 2 1.6201223923672060e+001 9.7921795356058794e-001 0.0000000000000000e+000 0 0 0
375 2 1.5934942889899490e+001 7.1136804192693359e-002 0.0000000000000000e+000 0 0 0
42 2 1.6971853276322186e+001 1.3807253278629031e-001 0.0000000000000000e+000 -1 0 0
813 2 1.7888930636741907e+001 5.9402609553509877e-001 0.0000000000000000e+000 0 1 0
623 2 1.7128515544339006e+001 1.3244200810377085e+000 0.0000000000000000e+000 0 0 0
451 1 1.8822741167208566e+001 1.4998246505825175e-001 0.0000000000000000e+000 0 1 0
47 2 1.9145467598701828e+001 1.0721925023586838e+000 0.0000000000000000e+000 -1 0 0
498 1 2.0126206765806259e+001 6.0009492875383341e-001 0.0000000000000000e+000 0 0 0
748 2 7.6113979292148681e-001 1.7298528071265982e+000 0.0000000000000000e+000 1 0 0
85 1 1.8893085248111885e+000 2.2028270464385531e+000 0.0000000000000000e+000 0 0 0
43 2 2.7103285506694772e+000 2.7859624884531029e+000 0.0000000000000000e+000 0 0 0
331 1 3.9672683190813811e+000 2.5551461114612084e+000 0.0000000000000000e+000 1 0 0
625 1 4.8037515922775045e+000 2.2142485103726797e+000 0.0000000000000000e+000 1 0 0
278 2 6.6851596967712235e+000 2.3495753107090849e+000 0.0000000000000000e+000 0 1 0
124 2 5.7836365456157690e+000 1.7688545365641279e+000 0.0000000000000000e+000 0 0 0
743 2 5.6969816239378384e+000 2.6756101726332866e+000 0.0000000000000000e+000 1 0 0
400 2 7.7735729635671635e+000 1.4461077417850428e+000 0.0000000000000000e+000 0 1 0
171 1 7.6621389266737623e+000 2.3800348863863614e+000 0.0000000000000000e+000 0 0 0
297 1 9.5563954535538986e+000 1.6533426290858249e+000 0.0000000000000000e+000 0 0 0
81 2 8.6364315222172721e+000 2.1976972191955371e+000 0.0000000000000000e+000 0 1 0
358 2 1.0059074999797849e+001 2.4816170337797945e+000 0.0000000000000000e+000 0 1 0
327 2 1.1079302203959521e+001 1.8911972804950703e+000 0.0000000000000000e+000 0 1 0
574 1 1.1983105871103058e+001 2.4147346458325400e+000 0.0000000000000000e+000 0 1 0
723 1 1.2429914192795385e+001 1.5202444237953681e+000 0.0000000000000000e+000 0 1 0
814 2 1.3952030270242071e+001 2.2734888222931633e+000 0.0000000000000000e+000 0 1 0
655 2 1.3039694630533182e+001 2.3245082674896222e+000 0.0000000000000000e+000 0 1 0
520 2 1.4599584111516458e+001 1.5555822066260330e+000 0.0000000000000000e+000 0 1 0
484 2 1.5058693276640218e+001 2.5089655603956666e+000 0.0000000000000000e+000 0 1 0
542 2 1.5700304365842467e+001 1.8003928145738999e+000 0.0000000000000000e+000 0 0 0
540 2 1.6560054534308911e+001 2.2909556535796414e+000 0.0000000000000000e+000 0 0 0
457 1 1.7613056522978489e+001 2.2537605999098993e+000 0.0000000000000000e+000 0 0 0
490 2 1.8879711651733398e+001 2.2491754414404950e+000 0.0000000000000000e+000 0 1 0
615 1 1.8237827801749994e+001 1.4925076839699989e+000 0.0000000000000000e+000 0 1 0
583 1 2.0816541929158884e+001 1.6226527057726203e+000 0.0000000000000000e+000 0 0 0
334 2 1.9872736131754738e+001 1.8104976946921780e+000 0.0000000000000000e+000 0 0 0
582 1 2.0968906956342977e+001 2.7114141937062528e+000 0.0000000000000000e+000 0 0 0
660 2 8.9827588694189198e-001 2.9258019657478158e+000 0.0000000000000000e+000 1 0 0
11 2 1.0191087341464331e+000 3.8848703424096511e+000 0.0000000000000000e+000 0 0 0
289 2 1.7972122874047709e+000 3.2841220915781224e+000 0.0000000000000000e+000 1 0 0
377 2 2.8418502278085320e+000 3.7385675001466110e+000 0.0000000000000000e+000 1 0 0
170 1 4.1105768353147365e+000 3.6435429187467645e+000 0.0000000000000000e+000 0 0 0
46 2 5.3187859905700092e+000 3.7025489944970604e+000 0.0000000000000000e+000 0 0 0
84 2 6.4270640925143914e+000 3.3923826847069223e+000 0.0000000000000000e+000 0 0 0
485 2 7.2793957513392789e+000 4.1131079748176802e+000 0.0000000000000000e+000 0 1 0
173 2 8.2741485231635519e+000 3.4349455273117138e+000 0.0000000000000000e+000 0 0 0
204 2 9.2354258186260658e+000 3.0362501383240619e+000 0.0000000000000000e+000 0 1 0
86 1 1.1004476194637860e+001 2.9204226722203499e+000 0.0000000000000000e+000 0 0 0
368 2 1.0173438979635078e+001 3.5541821580597666e+000 0.0000000000000000e+000 0 1 0
776 2 1.2571410303368371e+001 3.3163397865898645e+000 0.0000000000000000e+000 0 1 0
534 2 1.1231927738547849e+001 3.8356841933321424e+000 0.0000000000000000e+000 0 0 0
71 2 1.2052807759877123e+001 4.0334120718263513e+000 0.0000000000000000e+000 -1 1 0
767 2 1.3349254448741911e+001 3.8844679994470441e+000 0.0000000000000000e+000 0 1 0
527 2 1.4237339720359214e+001 3.2719928545710122e+000 0.0000000000000000e+000 0 1 0
742 1 1.5097782154866952e+001 3.6902670641617585e+000 0.0000000000000000e+000 1 0 0
410 1 1.6258926262065142e+001 3.8630158359579707e+000 0.0000000000000000e+000 0 1 0
329 2 1.5840620712818460e+001 2.9413532142141161e+000 0.0000000000000000e+000 0 0 0
458 1 1.7047483713154740e+001 3.0846656106650840e+000 0.0000000000000000e+000 0 0 0
792 2 1.8053007825604556e+001 3.0553584482327687e+000 0.0000000000000000e+000 0 0 0
369 1 1.7547155541971289e+001 4.0378787537387710e+000 0.0000000000000000e+000 0 1 0
372 1 1.9093586029193084e+001 3.1223935868210639e+000 0.0000000000000000e+000 0 0 0
538 1 1.8531664588928209e+001 3.9033603337105958e+000 0.0000000000000000e+000 0 0 0
460 1 2.0081518026517770e+001 2.9544334197095576e+000 0.0000000000000000e+000 0 0 0
529 2 1.9723812275237982e+001 3.9435706972421078e+000 0.0000000000000000e+000 0 1 0
49 2 2.0855626322778104e+001 3.8354782644634127e+000 0.0000000000000000e+000 -1 0 0
702 1 4.3908975112069720e-001 4.7921091225107428e+000 0.0000000000000000e+000 1 0 0
791 2 2.0206922856653584e+000 4.2424456770775034e+000 0.0000000000000000e+000 1 0 0
786 2 1.4300196285571127e+000 4.8670102163783797e+000 0.0000000000000000e+000 1 0 0
339 2 2.5323336047356024e+000 4.9988168756862139e+000 0.0000000000000000e+000 0 0 0
177 2 3.5597387376966094e+000 4.6709761229584883e+000 0.0000000000000000e+000 0 0 0
378 2 4.1717446105197764e+000 5.4447317143662906e+000 0.0000000000000000e+000 0 0 0
785 2 4.6640488610205022e+000 4.5837007671317460e+000 0.0000000000000000e+000 1 0 0
420 1 5.2545784026369216e+000 5.3553312990036206e+000 0.0000000000000000e+000 0 0 0
5 2 6.6452488158810867e+000 5.2551307101141891e+000 0.0000000000000000e+000 0 0 0
667 1 6.0171806976335080e+000 4.4580861806887171e+000 0.0000000000000000e+000 1 0 0
705 1 7.6212995839825712e+000 5.0301445246702787e+000 0.0000000000000000e+000 1 0 0
212 1 8.3513272693744618e+000 4.4136874096650285e+000 0.0000000000000000e+000 0 0 0
414 1 9.3468006159518975e+000 4.2875667537451969e+000 0.0000000000000000e+000 1 0 0
654 1 8.6216877466996227e+000 5.6332800157830087e+000 0.0000000000000000e+000 0 1 0
83 2 9.6346276149232377e+000 5.3874034944713420e+000 0.0000000000000000e+000 0 0 0
411 2 1.0384105842306026e+001 4.6308093507284349e+000 0.0000000000000000e+000 0 0 0
416 1 1.2198575227988245e+001 5.3479271816141907e+000 0.0000000000000000e+000 0 0 0
695 2 1.1380257335562783e+001 4.7906265139991007e+000 0.0000000000000000e+000 0 1 0
487 1 1.2821024870741729e+001 4.6400067984980042e+000 0.0000000000000000e+000 0 1 0
238 1 1.3646870820972838e+001 5.0565071026772390e+000 0.0000000000000000e+000 0 1 0
736 2 1.4324205004296463e+001 4.3005266300651392e+000 0.0000000000000000e+000 0 1 0
417 2 1.4730642317521696e+001 5.3043481646759592e+000 0.0000000000000000e+000 0 0 0
466 1 1.6764091926709099e+001 4.8140514334222653e+000 0.0000000000000000e+000 0 0 0
489 2 1.5537107915106116e+001 4.5210776220712425e+000 0.0000000000000000e+000 0 1 0
174 1 1.5726933255671030e+001 5.6383190996169104e+000 0.0000000000000000e+000 0 0 0
291 1 1.7931815967957313e+001 4.9637939699747582e+000 0.0000000000000000e+000 0 0 0
575 2 1.9020287321094049e+001 4.8583476862264305e+000 0.0000000000000000e+000 0 0 0
52 2 2.0406335257847360e+001 5.0892427824331854e+000 0.0000000000000000e+000 -1 0 0
337 2 1.9715193005276387e+001 5.6530612279145132e+000 0.0000000000000000e+000 0 0 0
744 2 4.0708449304036148e-001 5.7400280824354200e+000 0.0000000000000000e+000 1 0 0
547 2 8.7909893203076162e-001 6.7464580883151477e+000 0.0000000000000000e+000 0 0 0
15 2 1.4312386885494965e+000 5.8713834123236683e+000 0.0000000000000000e+000 0 0 0
454 2 2.3819198348358332e+000 6.2506930370348979e+000 0.0000000000000000e+000 1 0 0
4 2 3.2105550237047877e+000 5.6783330990652336e+000 0.0000000000000000e+000 0 0 0
539 1 4.0625855343151738e+000 6.3104733730259239e+000 0.0000000000000000e+000 1 0 0
371 1 5.0720667570075459e+000 6.5773615618537074e+000 0.0000000000000000e+000 0 0 0
129 1 5.9339765498384356e+000 6.0033676883144320e+000 0.0000000000000000e+000 0 0 0
89 1 6.0325313861119465e+000 6.9970600590234797e+000 0.0000000000000000e+000 0 0 0
335 2 6.8309761706090510e+000 6.4198276050294361e+000 0.0000000000000000e+000 0 0 0
293 2 7.7151423917582491e+000 5.8988125109297762e+000 0.0000000000000000e+000 0 0 0
418 2 9.5930118411414007e+000 6.4741656009117916e+000 0.0000000000000000e+000 0 0 0
330 2 8.4594761761810577e+000 6.6480093542849250e+000 0.0000000000000000e+000 0 0 0
611 1 1.0783001293772610e+001 5.8685808943744355e+000 0.0000000000000000e+000 0 1 0
412 2 1.1094915224665833e+001 7.0121702634628011e+000 0.0000000000000000e+000 0 0 0
627 2 1.1932650096793086e+001 6.5279878974372378e+000 0.0000000000000000e+000 0 0 0
123 1 1.2957591225699737e+001 6.1973041400105693e+000 0.0000000000000000e+000 0 1 0
488 2 1.3667080873641472e+001 6.7420081995764214e+000 0.0000000000000000e+000 0 1 0
324 2 1.4095658980783028e+001 5.9517309023619562e+000 0.0000000000000000e+000 0 1 0
405 1 1.4932317715505953e+001 6.4173202523782908e+000 0.0000000000000000e+000 0 1 0
333 2 1.6782540000049767e+001 5.7346218843518200e+000 0.0000000000000000e+000 0 0 0
449 2 1.6218247707502858e+001 6.5713477743871174e+000 0.0000000000000000e+000 0 1 0
419 2 1.7727708608407866e+001 5.8330226393372717e+000 0.0000000000000000e+000 0 0 0
703 1 1.7371873823176376e+001 6.5971501588471000e+000 0.0000000000000000e+000 0 0 0
256 1 1.8530806520672872e+001 6.7797590355234671e+000 0.0000000000000000e+000 0 0 0
546 2 1.8693141399646976e+001 5.7906728055748946e+000 0.0000000000000000e+000 0 0 0
12 2 2.0569928477802772e+001 6.0416110789486677e+000 0.0000000000000000e+000 -1 0 0
208 2 1.9779794068573498e+001 6.9204607260765254e+000 0.0000000000000000e+000 0 0 0
214 2 2.0724092294840453e+001 6.9785745911007284e+000 0.0000000000000000e+000 -1 0 0
790 2 5.1276234682731414e-001 7.6252519188711219e+000 0.0000000000000000e+000 1 0 0
299 1 1.9207271118882372e+000 7.1105218645178399e+000 0.0000000000000000e+000 0 0 0
253 1 2.0989614893919297e+000 8.1558640299095444e+000 0.0000000000000000e+000 0 0 0
255 1 2.9105079459822036e+000 7.2680489322959723e+000 0.0000000000000000e+000 0 0 0
213 2 4.1764067712804467e+000 8.4081383477127591e+000 0.0000000000000000e+000 0 0 0
590 1 4.0183326251214675e+000 7.4438878004723099e+000 0.0000000000000000e+000 0 0 0
338 1 4.9918491164411121e+000 7.6046798040277475e+000 0.0000000000000000e+000 0 0 0
747 2 6.8923980620210950e+000 7.5429792502306716e+000 0.0000000000000000e+000 1 0 0
548 1 5.9553099263658380e+000 8.0676087082722834e+000 0.0000000000000000e+000 0 0 0
254 1 7.8871679516618878e+000 7.5280582205126985e+000 0.0000000000000000e+000 0 0 0
257 1 7.5196060348463645e+000 8.3580367954724490e+000 0.0000000000000000e+000 0 0 0
210 1 9.1771928231306497e+000 7.3274348649387910e+000 0.0000000000000000e+000 0 0 0
448 2 8.6224091216512289e+000 8.3927144732977528e+000 0.0000000000000000e+000 0 1 0
383 2 9.5146014125021523e+000 8.1716780148827315e+000 0.0000000000000000e+000 0 0 0
614 2 1.0206317635570681e+001 7.2846950738430793e+000 0.0000000000000000e+000 0 1 0
447 2 1.1176918098727452e+001 8.0835901025418693e+000 0.0000000000000000e+000 0 1 0
323 1 1.2055428993356491e+001 7.6641835445689015e+000 0.0000000000000000e+000 0 1 0
506 2 1.2937130066621664e+001 7.3948065228306703e+000 0.0000000000000000e+000 0 0 0
491 2 1.3725902578416537e+001 7.9364892299189247e+000 0.0000000000000000e+000 0 1 0
704 1 1.4473768800324690e+001 7.3244888768849030e+000 0.0000000000000000e+000 1 0 0
134 1 1.4716192426768886e+001 8.3927477627540963e+000 0.0000000000000000e+000 -1 0 0
295 2 1.5636189908759892e+001 7.6177373202506518e+000 0.0000000000000000e+000 0 0 0
737 2 1.6833210312563960e+001 8.3267868487789602e+000 0.0000000000000000e+000 0 1 0
576 2 1.6824012935994634e+001 7.3544632248037747e+000 0.0000000000000000e+000 0 0 0
250 1 1.7979430543057298e+001 7.8127474727590052e+000 0.0000000000000000e+000 0 0 0
707 1 1.9109165724060936e+001 7.7756033557545319e+000 0.0000000000000000e+000 0 0 0
461 1 2.0342385377496253e+001 8.1446225283368960e+000 0.0000000000000000e+000 -1 0 0
172 2 4.2895277256543557e-001 8.5041477254172282e+000 0.0000000000000000e+000 0 0 0
665 2 5.6118702689635647e-001 9.5149483232633276e+000 0.0000000000000000e+000 1 0 0
505 2 1.3254575537882340e+000 8.7431738294029167e+000 0.0000000000000000e+000 0 0 0
180 1 2.2266601102639054e+000 9.3086683715626535e+000 0.0000000000000000e+000 0 0 0
621 2 3.0920731286194405e+000 8.5284692457836844e+000 0.0000000000000000e+000 1 0 0
787 2 3.1572060699951074e+000 9.4685200780502363e+000 0.0000000000000000e+000 1 0 0
415 1 4.2211914621617064e+000 9.4632783406547585e+000 0.0000000000000000e+000 0 0 0
247 2 5.1176996393271876e+000 8.9767508312881024e+000 0.0000000000000000e+000 0 0 0
128 1 6.6262906365608272e+000 8.6675318343214691e+000 0.0000000000000000e+000 0 0 0
464 1 6.0253951389686051e+000 9.3350211613687595e+000 0.0000000000000000e+000 0 0 0
168 2 7.2754823147156902e+000 9.7085307532572056e+000 0.0000000000000000e+000 0 0 0
392 2 8.0286948270448608e+000 9.3053601007767526e+000 0.0000000000000000e+000 0 0 0
215 1 9.1090062694612950e+000 9.3104274766885737e+000 0.0000000000000000e+000 0 0 0
493 2 1.0374227814124207e+001 8.7312855241346696e+000 0.0000000000000000e+000 0 0 0
630 1 1.0999606573285403e+001 9.4878332185642442e+000 0.0000000000000000e+000 0 0 0
259 2 1.1778693199748318e+001 8.8076940132347872e+000 0.0000000000000000e+000 -1 0 0
252 1 1.2720184723518551e+001 8.7341786493394515e+000 0.0000000000000000e+000 0 0 0
422 2 1.3675208963287275e+001 8.9365593463516468e+000 0.0000000000000000e+000 0 0 0
379 1 1.4373155216560425e+001 9.7823848334875549e+000 0.0000000000000000e+000 0 0 0
8 2 1.5338314396590121e+001 9.4484201847865403e+000 0.0000000000000000e+000 -1 0 0
709 1 1.5725604446561633e+001 8.5422243452099540e+000 0.0000000000000000e+000 0 0 0
332 1 1.6473774985720393e+001 9.4100950082613526e+000 0.0000000000000000e+000 0 0 0
578 1 1.7777264432929606e+001 9.1804590219943716e+000 0.0000000000000000e+000 0 0 0
251 1 1.8656869822235304e+001 8.6275947347923143e+000 0.0000000000000000e+000 0 0 0
374 2 1.9377750417563529e+001 9.7525533897405889e+000 0.0000000000000000e+000 0 0 0
9 2 2.0687129622302628e+001 9.1189795420756816e+000 0.0000000000000000e+000 -1 0 0
386 2 1.9664270331164321e+001 8.8728431633907974e+000 0.0000000000000000e+000 -1 0 0
10 2 1.3251440960216335e-001 1.0657920023215642e+001 0.0000000000000000e+000 0 0 0
258 2 9.9559432344684495e-001 1.0891995150477349e+001 0.0000000000000000e+000 0 0 0
663 2 1.4560247608403385e+000 1.0046155966013201e+001 0.0000000000000000e+000 1 0 0
508 1 2.5321829830485947e+000 1.0231280536646489e+001 0.0000000000000000e+000 0 0 0
661 2 1.9582115199233752e+000 1.1021119298799752e+001 0.0000000000000000e+000 1 0 0
90 1 3.7104369608929906e+000 1.0350084877927737e+001 0.0000000000000000e+000 0 0 0
342 1 2.9467173772927753e+000 1.1238225641184817e+001 0.0000000000000000e+000 0 0 0
545 2 5.1484863263356537e+000 9.9587041688030578e+000 0.0000000000000000e+000 0 0 0
750 2 4.7599356336552550e+000 1.0833901244854236e+001 0.0000000000000000e+000 1 0 0
175 1 6.8118656384057790e+000 1.0515317602370770e+001 0.0000000000000000e+000 -1 0 0
543 1 5.7093585953665880e+000 1.0895160555526083e+001 0.0000000000000000e+000 0 0 0
294 2 7.8125450112148185e+000 1.0808139639340080e+001 0.0000000000000000e+000 0 0 0
211 1 8.8963512281918113e+000 1.1022383299780243e+001 0.0000000000000000e+000 0 0 0
125 2 8.4790077227781104e+000 1.0083121033671736e+001 0.0000000000000000e+000 0 0 0
626 1 9.7395406441462082e+000 1.0272554057842722e+001 0.0000000000000000e+000 0 0 0
169 1 1.0698815932854290e+001 1.0735339491789066e+001 0.0000000000000000e+000 0 0 0
585 1 1.2391972658656336e+001 9.9217934417029827e+000 0.0000000000000000e+000 0 0 0
382 2 1.1633105000527628e+001 1.0677316145668936e+001 0.0000000000000000e+000 0 0 0
465 1 1.2696446652552503e+001 1.1051933461624040e+001 0.0000000000000000e+000 0 0 0
664 2 1.3714680389841256e+001 1.0880263744617109e+001 0.0000000000000000e+000 0 0 0
249 2 1.3327335847285443e+001 9.9666167034991151e+000 0.0000000000000000e+000 0 0 0
503 1 1.5203594700472756e+001 1.0704180528028106e+001 0.0000000000000000e+000 0 0 0
468 1 1.6717636711538422e+001 1.1015760591670377e+001 0.0000000000000000e+000 0 0 0
462 1 1.6078845769190430e+001 1.0299892345018563e+001 0.0000000000000000e+000 0 0 0
662 2 1.7245710055214946e+001 1.0156741738403053e+001 0.0000000000000000e+000 0 0 0
376 2 1.7808339050826977e+001 1.0972289339302145e+001 0.0000000000000000e+000 0 0 0
711 1 1.8538712182037884e+001 1.0074645070942985e+001 0.0000000000000000e+000 0 0 0
463 1 1.9520266185038132e+001 1.0718960064864236e+001 0.0000000000000000e+000 0 0 0
209 2 1.8790730432196099e+001 1.1240176889629186e+001 0.0000000000000000e+000 0 0 0
135 2 2.0265020403756562e+001 1.0175071535129707e+001 0.0000000000000000e+000 -1 0 0
136 2 2.0364077540095046e+001 1.1163484543463657e+001 0.0000000000000000e+000 -1 0 0
619 2 2.7177677105465714e-001 1.1551585085110345e+001 0.0000000000000000e+000 1 0 0
793 2 1.0879463479778275e+000 1.2010240403447131e+001 0.0000000000000000e+000 1 0 0
592 2 2.2103007693641983e+000 1.2071640747575026e+001 0.0000000000000000e+000 0 0 0
21 2 3.1953490198286749e+000 1.2167266428982666e+001 0.0000000000000000e+000 0 0 0
260 2 3.9077671077703919e+000 1.1311382526167232e+001 0.0000000000000000e+000 0 0 0
672 1 5.0374188801846751e+000 1.1749942014655407e+001 0.0000000000000000e+000 0 0 0
340 1 4.2353694201728009e+000 1.2402371637848224e+001 0.0000000000000000e+000 0 0 0
631 1 5.5804048328751144e+000 1.2541096738709307e+001 0.0000000000000000e+000 0 0 0
425 1 6.2081597071472325e+000 1.1713661702877930e+001 0.0000000000000000e+000 0 0 0
139 1 6.6795530879731748e+000 1.2574583408649231e+001 0.0000000000000000e+000 0 0 0
751 2 8.1988948128619654e+000 1.2188199327607840e+001 0.0000000000000000e+000 0 0 0
298 1 7.3200589027440346e+000 1.1787743365423079e+001 0.0000000000000000e+000 0 0 0
381 1 9.2725026858225466e+000 1.2251537156635502e+001 0.0000000000000000e+000 0 0 0
450 2 9.8156699227846538e+000 1.1408588246906005e+001 0.0000000000000000e+000 0 1 0
749 2 1.0943323582417147e+001 1.1638877955011864e+001 0.0000000000000000e+000 0 0 0
288 2 1.0437903626491826e+001 1.2515992116448658e+001 0.0000000000000000e+000 0 0 0
593 2 1.1869758229562029e+001 1.1714790720869130e+001 0.0000000000000000e+000 0 0 0
552 2 1.2745402313907990e+001 1.2410515225026211e+001 0.0000000000000000e+000 0 0 0
673 1 1.3697930855688611e+001 1.1939534489670864e+001 0.0000000000000000e+000 0 0 0
423 2 1.4568271153793987e+001 1.1325937050469060e+001 0.0000000000000000e+000 0 0 0
628 2 1.5204469695985473e+001 1.2170666308804931e+001 0.0000000000000000e+000 0 0 0
455 1 1.6015594512341369e+001 1.1655142543458602e+001 0.0000000000000000e+000 0 0 0
795 2 1.6904885949054041e+001 1.2081452203642776e+001 0.0000000000000000e+000 0 0 0
668 2 1.8238167129575686e+001 1.2049549088303671e+001 0.0000000000000000e+000 0 0 0
544 1 1.9472573900473140e+001 1.1955354850455008e+001 0.0000000000000000e+000 0 0 0
300 2 2.0522148016807861e+001 1.2178628327697783e+001 0.0000000000000000e+000 -1 0 0
618 2 6.4769555411723734e-001 1.2902698027247999e+001 0.0000000000000000e+000 1 0 0
122 2 9.6507596948279151e-001 1.3745147154506466e+001 0.0000000000000000e+000 0 1 0
137 2 1.1558619069365920e-001 1.4050145428067040e+001 0.0000000000000000e+000 0 0 0
218 1 2.0291468297621011e+000 1.3790396359153615e+001 0.0000000000000000e+000 0 0 0
659 2 1.6489516546350460e+000 1.2807745911247139e+001 0.0000000000000000e+000 1 0 0
499 2 2.6594561564787731e+000 1.2983110591867209e+001 0.0000000000000000e+000 1 0 0
220 1 3.6745093879830137e+000 1.3199973084567684e+001 0.0000000000000000e+000 0 0 0
182 2 2.9575288242570172e+000 1.3951394786312409e+001 0.0000000000000000e+000 0 0 0
292 1 4.6642992448230398e+000 1.3414350666778121e+001 0.0000000000000000e+000 0 0 0
217 1 5.5189857581768056e+000 1.3505681213712798e+001 0.0000000000000000e+000 0 0 0
261 2 6.4995756622681986e+000 1.3535067141442976e+001 0.0000000000000000e+000 0 0 0
586 1 7.5768967408976700e+000 1.3133179499079402e+001 0.0000000000000000e+000 0 0 0
798 2 8.5503950871800871e+000 1.3076467987663143e+001 0.0000000000000000e+000 1 0 0
13 2 9.6603800345026301e+000 1.3173210951743592e+001 0.0000000000000000e+000 0 0 0
165 2 1.0604915459501484e+001 1.3608565616346686e+001 0.0000000000000000e+000 0 0 0
6 2 1.1809505358913977e+001 1.2889119925960216e+001 0.0000000000000000e+000 0 0 0
674 1 1.1630082160407353e+001 1.4002012515660683e+001 0.0000000000000000e+000 0 0 0
131 2 1.2678807008890304e+001 1.3510327543659972e+001 0.0000000000000000e+000 0 0 0
471 2 1.3707533158756378e+001 1.3089477625710147e+001 0.0000000000000000e+000 0 0 0
675 2 1.4163854974497722e+001 1.4048154097980012e+001 0.0000000000000000e+000 0 0 0
430 2 1.4670334139975651e+001 1.2969020439085932e+001 0.0000000000000000e+000 0 0 0
18 2 1.5318409008581124e+001 1.4046431310913416e+001 0.0000000000000000e+000 -1 0 0
632 2 1.5600046738223398e+001 1.3189365484723149e+001 0.0000000000000000e+000 0 0 0
584 1 1.6564292094542832e+001 1.3081735621113245e+001 0.0000000000000000e+000 0 0 0
94 1 1.6382284864211073e+001 1.4006065845926216e+001 0.0000000000000000e+000 -1 0 0
53 2 1.7412876254252687e+001 1.3842743103146905e+001 0.0000000000000000e+000 -1 0 0
336 2 1.7583019278971712e+001 1.2837971078808847e+001 0.0000000000000000e+000 0 0 0
497 1 1.8725352266569725e+001 1.2837719824963047e+001 0.0000000000000000e+000 0 0 0
753 2 1.8312182669338711e+001 1.3690561344947897e+001 0.0000000000000000e+000 0 0 0
296 1 1.9567644422480900e+001 1.3078902150539689e+001 0.0000000000000000e+000 -1 0 0
459 1 2.0719384080137328e+001 1.3054320466075227e+001 0.0000000000000000e+000 0 0 0
54 2 2.0126438716940559e+001 1.4022299088932524e+001 0.0000000000000000e+000 -1 0 0
176 2 1.1686620044983118e+000 1.4719308876807345e+001 0.0000000000000000e+000 0 0 0
701 1 2.3603025942394971e+000 1.5002028097244086e+001 0.0000000000000000e+000 1 0 0
20 2 4.1253958639396604e+000 1.4301523245298148e+001 0.0000000000000000e+000 0 0 0
302 2 3.3569572825859084e+000 1.5067547735050633e+001 0.0000000000000000e+000 0 0 0
549 1 5.2329990522422705e+000 1.4518738039292861e+001 0.0000000000000000e+000 0 0 0
133 1 4.4451495090436381e+000 1.5246908408699992e+001 0.0000000000000000e+000 0 0 0
426 1 5.5178934073087458e+000 1.5448283073739747e+001 0.0000000000000000e+000 0 0 0
216 1 6.3077238350010605e+000 1.4507040472466231e+001 0.0000000000000000e+000 0 0 0
98 1 8.0637449040286455e+000 1.4147186461552753e+001 0.0000000000000000e+000 0 0 0
436 1 7.3247376001824991e+000 1.4795812745283600e+001 0.0000000000000000e+000 0 0 0
467 1 9.2392406459434415e+000 1.4294710005790682e+001 0.0000000000000000e+000 0 0 0
138 2 8.4141887782922158e+000 1.5180779702029128e+001 0.0000000000000000e+000 0 0 0
431 2 9.7306759714207054e+000 1.5345327035234300e+001 0.0000000000000000e+000 0 0 0
511 2 1.0225780168459051e+001 1.4484548073082346e+001 0.0000000000000000e+000 0 0 0
57 1 1.1400476203173300e+001 1.5289642716943842e+001 0.0000000000000000e+000 -1 0 0
501 2 1.2351943910122879e+001 1.4986380361178695e+001 0.0000000000000000e+000 0 0 0
424 2 1.3284758387478776e+001 1.4459126208177906e+001 0.0000000000000000e+000 0 0 0
178 1 1.4085226334333088e+001 1.5054828949556722e+001 0.0000000000000000e+000 0 0 0
56 2 1.5007378141056110e+001 1.4945673840009404e+001 0.0000000000000000e+000 -1 0 0
710 1 1.6000882273889960e+001 1.4958284951558904e+001 0.0000000000000000e+000 0 0 0
788 2 1.7118503928918216e+001 1.4817142964273710e+001 0.0000000000000000e+000 0 0 0
708 1 1.8141736413987591e+001 1.4828741481913662e+001 0.0000000000000000e+000 0 0 0
502 1 1.9095139822523759e+001 1.4215377327271671e+001 0.0000000000000000e+000 0 0 0
755 1 2.0722248294280590e+001 1.4907704355233342e+001 0.0000000000000000e+000 0 0 0
91 1 1.9657513594487849e+001 1.4957039446630811e+001 0.0000000000000000e+000 -1 0 0
759 2 1.3361364908246434e+000 1.5658632837134101e+001 0.0000000000000000e+000 1 0 0
557 1 2.8421624942073714e-001 1.5762919591519049e+001 0.0000000000000000e+000 1 0 0
103 2 7.1559728100935616e-001 1.6657172127562852e+001 0.0000000000000000e+000 0 0 0
222 2 1.9389126293372461e+000 1.6489560232648710e+001 0.0000000000000000e+000 0 0 0
19 2 2.8188767767628127e+000 1.5908249101953594e+001 0.0000000000000000e+000 0 0 0
389 2 3.7992262620689101e+000 1.6004984961700142e+001 0.0000000000000000e+000 0 0 0
756 1 3.7756279259017100e+000 1.6841101505461779e+001 0.0000000000000000e+000 1 0 0
620 2 4.7990707381487407e+000 1.6364568051718059e+001 0.0000000000000000e+000 1 0 0
113 2 6.0346966445421169e+000 1.6578744668076887e+001 0.0000000000000000e+000 0 0 0
147 2 6.4794294614529733e+000 1.5737586627614427e+001 0.0000000000000000e+000 0 0 0
345 1 7.0144010046790246e+000 1.6875844222511887e+001 0.0000000000000000e+000 0 0 0
551 2 7.5544486581641230e+000 1.5775990389050195e+001 0.0000000000000000e+000 0 0 0
550 1 8.0738871830006627e+000 1.6551044485583894e+001 0.0000000000000000e+000 0 0 0
554 2 8.9212390376694586e+000 1.6089312678541511e+001 0.0000000000000000e+000 0 0 0
341 1 1.0622120878222157e+001 1.5729729983094366e+001 0.0000000000000000e+000 0 0 0
388 2 1.0268099815684000e+001 1.6818580987898056e+001 0.0000000000000000e+000 0 0 0
301 2 1.1336674256976513e+001 1.6568271876117407e+001 0.0000000000000000e+000 0 0 0
595 2 1.2213776602539319e+001 1.6162778019037894e+001 0.0000000000000000e+000 0 0 0
421 1 1.2894734028254101e+001 1.6747122080755041e+001 0.0000000000000000e+000 0 0 0
629 1 1.4094825704612777e+001 1.6053703723341545e+001 0.0000000000000000e+000 0 0 0
142 2 1.4879151437303667e+001 1.6621973704147216e+001 0.0000000000000000e+000 -1 0 0
553 2 1.5528759432750622e+001 1.5869071441235745e+001 0.0000000000000000e+000 0 0 0
16 2 1.6711921009158733e+001 1.5808403648492769e+001 0.0000000000000000e+000 -1 0 0
51 2 1.6679106930469096e+001 1.6841103520328055e+001 0.0000000000000000e+000 -1 0 0
514 2 1.7644975243446556e+001 1.5709782265828883e+001 0.0000000000000000e+000 0 0 0
706 1 1.7531911041014443e+001 1.6708110579991370e+001 0.0000000000000000e+000 0 0 0
796 2 1.8605226173529775e+001 1.5663773281253821e+001 0.0000000000000000e+000 0 0 0
715 1 1.8715986140782544e+001 1.6736690715982448e+001 0.0000000000000000e+000 0 0 0
504 2 2.0332289540504600e+001 1.5751387579227895e+001 0.0000000000000000e+000 0 0 0
58 1 1.9672090102423645e+001 1.6521282370042290e+001 0.0000000000000000e+000 -1 0 0
92 1 2.0790653137316575e+001 1.6731811494530934e+001 0.0000000000000000e+000 -1 0 0
475 2 3.6889294817430013e-001 1.7620502511346320e+001 0.0000000000000000e+000 1 0 0
303 2 2.7027699586863849e+000 1.7098314746533251e+001 0.0000000000000000e+000 0 0 0
22 2 2.3358377951721896e+000 1.8155682074746661e+001 0.0000000000000000e+000 0 0 0
469 2 1.4297177837601724e+000 1.7338461828780595e+001 0.0000000000000000e+000 0 0 0
686 2 3.4856121193098986e+000 1.7880279495134001e+001 0.0000000000000000e+000 1 0 0
64 2 4.8844235526100279e+000 1.7219956417535943e+001 0.0000000000000000e+000 0 0 0